                         Program Version 5.0.1 -  RELEASE  -
|  1> %Maxcore 2000
|  2>  %Pal nprocs 30 End
|  3>
|  4>  * xyz 0 1
|  5>  I       -0.000000   -0.000000    0.324673
|  6>  C       -0.000000   -0.000000   -1.802260
|  7>  H        0.000000    1.032733   -2.131368
|  8>  H        0.894373   -0.516367   -2.131368
|  9>  H       -0.894373   -0.516367   -2.131368
| 10>  *
| 11>
| 12>
| 13>                          ****END OF INPUT****
|  1>     ! DKH DefGrid3 RIJCOSX TightPNO DLPNO-MP2 MiniPrint NoPop
|  2>     %Basis
|  3>       Basis         "cc-pVTZ-DK"
|  4>       AuxJ          "AutoAux"
|  5>       AuxC          "AutoAux"
|  6>       CABS          "AutoAux"
|  7>       NewGTO     Ga "cc-pVTZ-DK" End
|  8>       NewAuxjGTO Ga "AutoAux" End
|  9>       NewAuxcGTO Ga "AutoAux" End
| 10>       NewCabsGTO Ga "AutoAux" End
| 11>       NewGTO     Ge "cc-pVTZ-DK" End
| 12>       NewAuxjGTO Ge "AutoAux" End
| 13>       NewAuxcGTO Ge "AutoAux" End
| 14>       NewCabsGTO Ge "AutoAux" End
| 15>       NewGTO     As "cc-pVTZ-DK" End
| 16>       NewAuxjGTO As "AutoAux" End
| 17>       NewAuxcGTO As "AutoAux" End
| 18>       NewCabsGTO As "AutoAux" End
| 19>       NewGTO     Se "cc-pVTZ-DK" End
| 20>       NewAuxjGTO Se "AutoAux" End
| 21>       NewAuxcGTO Se "AutoAux" End
| 22>       NewCabsGTO Se "AutoAux" End
| 23>       NewGTO     Br "cc-pVTZ-DK" End
| 24>       NewAuxjGTO Br "AutoAux" End
| 25>       NewAuxcGTO Br "AutoAux" End
| 26>       NewCabsGTO Br "AutoAux" End
| 27>       NewGTO     Kr "cc-pVTZ-DK" End
| 28>       NewAuxjGTO Kr "AutoAux" End
| 29>       NewAuxcGTO Kr "AutoAux" End
| 30>       NewCabsGTO Kr "AutoAux" End
| 31>       NewGTO     In "cc-pVTZ-DK" End
| 32>       NewAuxjGTO In "AutoAux" End
| 33>       NewAuxcGTO In "AutoAux" End
| 34>       NewCabsGTO In "AutoAux" End
| 35>       NewGTO     Sn "cc-pVTZ-DK" End
| 36>       NewAuxjGTO Sn "AutoAux" End
| 37>       NewAuxcGTO Sn "AutoAux" End
| 38>       NewCabsGTO Sn "AutoAux" End
| 39>       NewGTO     Sb "cc-pVTZ-DK" End
| 40>       NewAuxjGTO Sb "AutoAux" End
| 41>       NewAuxcGTO Sb "AutoAux" End
| 42>       NewCabsGTO Sb "AutoAux" End
| 43>       NewGTO     Te "cc-pVTZ-DK" End
| 44>       NewAuxjGTO Te "AutoAux" End
| 45>       NewAuxcGTO Te "AutoAux" End
| 46>       NewCabsGTO Te "AutoAux" End
| 47>       NewGTO     I  "cc-pVTZ-DK" End
| 48>       NewAuxjGTO I  "AutoAux" End
| 49>       NewAuxcGTO I  "AutoAux" End
| 50>       NewCabsGTO I  "AutoAux" End
| 51>       NewGTO     Xe "cc-pVTZ-DK" End
| 52>       NewAuxjGTO Xe "AutoAux" End
| 53>       NewAuxcGTO Xe "AutoAux" End
| 54>       NewCabsGTO Xe "AutoAux" End
| 55>     End
| 56>
| 57>                          ****END OF INPUT****
MP2 TOTAL ENERGY:    -7150.897396310 Eh
FINAL SINGLE POINT ENERGY     -7150.897396309751
|  1>     ! DefGrid3 RIJCOSX TightPNO DLPNO-MP2 MiniPrint NoPop
|  2>     %Basis
|  3>       Basis         "cc-pVTZ"
|  4>       AuxJ          "AutoAux"
|  5>       AuxC          "AutoAux"
|  6>       CABS          "AutoAux"
|  7>       NewECP     Ga "SK-MCDHF-RSC" End
|  8>       NewGTO     Ga "cc-pVTZ-PP"   End
|  9>       NewAuxjGTO Ga "AutoAux" End
| 10>       NewAuxcGTO Ga "AutoAux" End
| 11>       NewCabsGTO Ga "AutoAux" End
| 12>       NewECP     Ge "SK-MCDHF-RSC" End
| 13>       NewGTO     Ge "cc-pVTZ-PP"   End
| 14>       NewAuxjGTO Ge "AutoAux" End
| 15>       NewAuxcGTO Ge "AutoAux" End
| 16>       NewCabsGTO Ge "AutoAux" End
| 17>       NewECP     As "SK-MCDHF-RSC" End
| 18>       NewGTO     As "cc-pVTZ-PP"   End
| 19>       NewAuxjGTO As "AutoAux" End
| 20>       NewAuxcGTO As "AutoAux" End
| 21>       NewCabsGTO As "AutoAux" End
| 22>       NewECP     Se "SK-MCDHF-RSC" End
| 23>       NewGTO     Se "cc-pVTZ-PP"   End
| 24>       NewAuxjGTO Se "AutoAux" End
| 25>       NewAuxcGTO Se "AutoAux" End
| 26>       NewCabsGTO Se "AutoAux" End
| 27>       NewECP     Br "SK-MCDHF-RSC" End
| 28>       NewGTO     Br "cc-pVTZ-PP"   End
| 29>       NewAuxjGTO Br "AutoAux" End
| 30>       NewAuxcGTO Br "AutoAux" End
| 31>       NewCabsGTO Br "AutoAux" End
| 32>       NewECP     Kr "SK-MCDHF-RSC" End
| 33>       NewGTO     Kr "cc-pVTZ-PP"   End
| 34>       NewAuxjGTO Kr "AutoAux" End
| 35>       NewAuxcGTO Kr "AutoAux" End
| 36>       NewCabsGTO Kr "AutoAux" End
| 37>       NewECP     In "SK-MCDHF-RSC" End
| 38>       NewGTO     In "cc-pVTZ-PP"   End
| 39>       NewAuxjGTO In "AutoAux" End
| 40>       NewAuxcGTO In "AutoAux" End
| 41>       NewCabsGTO In "AutoAux" End
| 42>       NewECP     Sn "SK-MCDHF-RSC" End
| 43>       NewGTO     Sn "cc-pVTZ-PP"   End
| 44>       NewAuxjGTO Sn "AutoAux" End
| 45>       NewAuxcGTO Sn "AutoAux" End
| 46>       NewCabsGTO Sn "AutoAux" End
| 47>       NewECP     Sb "SK-MCDHF-RSC" End
| 48>       NewGTO     Sb "cc-pVTZ-PP"   End
| 49>       NewAuxjGTO Sb "AutoAux" End
| 50>       NewAuxcGTO Sb "AutoAux" End
| 51>       NewCabsGTO Sb "AutoAux" End
| 52>       NewECP     Te "SK-MCDHF-RSC" End
| 53>       NewGTO     Te "cc-pVTZ-PP"   End
| 54>       NewAuxjGTO Te "AutoAux" End
| 55>       NewAuxcGTO Te "AutoAux" End
| 56>       NewCabsGTO Te "AutoAux" End
| 57>       NewECP     I  "SK-MCDHF-RSC" End
| 58>       NewGTO     I  "cc-pVTZ-PP"   End
| 59>       NewAuxjGTO I  "AutoAux" End
| 60>       NewAuxcGTO I  "AutoAux" End
| 61>       NewCabsGTO I  "AutoAux" End
| 62>       NewECP     Xe "SK-MCDHF-RSC" End
| 63>       NewGTO     Xe "cc-pVTZ-PP"   End
| 64>       NewAuxjGTO Xe "AutoAux" End
| 65>       NewAuxcGTO Xe "AutoAux" End
| 66>       NewCabsGTO Xe "AutoAux" End
| 67>     End
| 68>
| 69>                          ****END OF INPUT****
MP2 TOTAL ENERGY:     -334.680643640 Eh
FINAL SINGLE POINT ENERGY      -334.680643640275
|  1>     ! DefGrid3 RIJCOSX TightPNO DLPNO-CCSD(T1)-F12 MiniPrint NoPop
|  2>     %Method
|  3>       NewNCore Ga 0 End
|  4>       NewNCore Ge 0 End
|  5>       NewNCore As 0 End
|  6>       NewNCore Se 0 End
|  7>       NewNCore Br 0 End
|  8>       NewNCore Kr 0 End
|  9>       NewNCore In 0 End
| 10>       NewNCore Sn 0 End
| 11>       NewNCore Sb 0 End
| 12>       NewNCore Te 0 End
| 13>       NewNCore I  0 End
| 14>       NewNCore Xe 0 End
| 15>     End
| 16>     %Basis
| 17>       Basis         "maug-cc-pV(D+d)Z"
| 18>       AuxJ          "AutoAux"
| 19>       AuxC          "AutoAux"
| 20>       CABS          "AutoAux"
| 21>       NewECP     Ga "SK-MCDHF-RSC" End
| 22>       NewGTO     Ga "cc-pWCVDZ-PP"
| 23>                     S   1
| 24>                     1         0.0222000              1.0000000
| 25>                     P   1
| 26>                     1         0.0145000              1.0000000
| 27>                     End
| 28>       NewAuxjGTO Ga "AutoAux" End
| 29>       NewAuxcGTO Ga "AutoAux" End
| 30>       NewCabsGTO Ga "AutoAux" End
| 31>       NewECP     Ge "SK-MCDHF-RSC" End
| 32>       NewGTO     Ge "cc-pWCVDZ-PP"
| 33>                     S   1
| 34>                     1         0.0310000              1.0000000
| 35>                     P   1
| 36>                     1         0.0232000              1.0000000
| 37>                     End
| 38>       NewAuxjGTO Ge "AutoAux" End
| 39>       NewAuxcGTO Ge "AutoAux" End
| 40>       NewCabsGTO Ge "AutoAux" End
| 41>       NewECP     As "SK-MCDHF-RSC" End
| 42>       NewGTO     As "cc-pWCVDZ-PP"
| 43>                     S   1
| 44>                     1         0.0370000              1.0000000
| 45>                     P   1
| 46>                     1         0.0308000              1.0000000
| 47>                     End
| 48>       NewAuxjGTO As "AutoAux" End
| 49>       NewAuxcGTO As "AutoAux" End
| 50>       NewCabsGTO As "AutoAux" End
| 51>       NewECP     Se "SK-MCDHF-RSC" End
| 52>       NewGTO     Se "cc-pWCVDZ-PP"
| 53>                     S   1
| 54>                     1         0.0433000              1.0000000
| 55>                     P   1
| 56>                     1         0.0345000              1.0000000
| 57>                     End
| 58>       NewAuxjGTO Se "AutoAux" End
| 59>       NewAuxcGTO Se "AutoAux" End
| 60>       NewCabsGTO Se "AutoAux" End
| 61>       NewECP     Br "SK-MCDHF-RSC" End
| 62>       NewGTO     Br "cc-pWCVDZ-PP"
| 63>                     S   1
| 64>                     1         0.0502000              1.0000000
| 65>                     P   1
| 66>                     1         0.0394000              1.0000000
| 67>                     End
| 68>       NewAuxjGTO Br "AutoAux" End
| 69>       NewAuxcGTO Br "AutoAux" End
| 70>       NewCabsGTO Br "AutoAux" End
| 71>       NewECP     Kr "SK-MCDHF-RSC" End
| 72>       NewGTO     Kr "cc-pWCVDZ-PP"
| 73>                     S   1
| 74>                     1         0.0571000              1.0000000
| 75>                     P   1
| 76>                     1         0.0443000              1.0000000
| 77>                     End
| 78>       NewAuxjGTO Kr "AutoAux" End
| 79>       NewAuxcGTO Kr "AutoAux" End
| 80>       NewCabsGTO Kr "AutoAux" End
| 81>       NewECP     In "SK-MCDHF-RSC" End
| 82>       NewGTO     In "cc-pWCVDZ-PP"
| 83>                     S   1
| 84>                     1         0.0203000              1.0000000
| 85>                     P   1
| 86>                     1         0.0141000              1.0000000
| 87>                     End
| 88>       NewAuxjGTO In "AutoAux" End
| 89>       NewAuxcGTO In "AutoAux" End
| 90>       NewCabsGTO In "AutoAux" End
| 91>       NewECP     Sn "SK-MCDHF-RSC" End
| 92>       NewGTO     Sn "cc-pWCVDZ-PP"
| 93>                     S   1
| 94>                     1         0.0275000              1.0000000
| 95>                     P   1
| 96>                     1         0.0209000              1.0000000
| 97>                     End
| 98>       NewAuxjGTO Sn "AutoAux" End
| 99>       NewAuxcGTO Sn "AutoAux" End
|100>       NewCabsGTO Sn "AutoAux" End
|101>       NewECP     Sb "SK-MCDHF-RSC" End
|102>       NewGTO     Sb "cc-pWCVDZ-PP"
|103>                     S   1
|104>                     1         0.0327000              1.0000000
|105>                     P   1
|106>                     1         0.0271000              1.0000000
|107>                     End
|108>       NewAuxjGTO Sb "AutoAux" End
|109>       NewAuxcGTO Sb "AutoAux" End
|110>       NewCabsGTO Sb "AutoAux" End
|111>       NewECP     Te "SK-MCDHF-RSC" End
|112>       NewGTO     Te "cc-pWCVDZ-PP"
|113>                     S   1
|114>                     1         0.0369000              1.0000000
|115>                     P   1
|116>                     1         0.0299000              1.0000000
|117>                     End
|118>       NewAuxjGTO Te "AutoAux" End
|119>       NewAuxcGTO Te "AutoAux" End
|120>       NewCabsGTO Te "AutoAux" End
|121>       NewECP     I  "SK-MCDHF-RSC" End
|122>       NewGTO     I  "cc-pWCVDZ-PP"
|123>                     S   1
|124>                     1         4.200000E-02           1.0000000
|125>                     P   1
|126>                     1         3.380000E-02           1.0000000
|127>                     End
|128>       NewAuxjGTO I  "AutoAux" End
|129>       NewAuxcGTO I  "AutoAux" End
|130>       NewCabsGTO I  "AutoAux" End
|131>       NewECP     Xe "SK-MCDHF-RSC" End
|132>       NewGTO     Xe "cc-pWCVDZ-PP"
|133>                     S   1
|134>                     1         0.0473000              1.0000000
|135>                     P   1
|136>                     1         0.0379000              1.0000000
|137>                     End
|138>       NewAuxjGTO Xe "AutoAux" End
|139>       NewAuxcGTO Xe "AutoAux" End
|140>       NewCabsGTO Xe "AutoAux" End
|141>     End
|142>
|143>                          ****END OF INPUT****
E(0)                                       ...   -334.269138864
E(CORR)(strong-pairs)                      ...     -0.687849158
E(CORR)(weak-pairs)                        ...     -0.000248115
E(CORR)(corrected)                         ...     -0.688097273
FINAL SINGLE POINT ENERGY      -335.323209875941
|  1>     ! DefGrid3 RIJCOSX TightPNO DLPNO-CCSD(T1)-F12 MiniPrint NoPop
|  2>     %Method
|  3>       NewNCore Ga 0 End
|  4>       NewNCore Ge 0 End
|  5>       NewNCore As 0 End
|  6>       NewNCore Se 0 End
|  7>       NewNCore Br 0 End
|  8>       NewNCore Kr 0 End
|  9>       NewNCore In 0 End
| 10>       NewNCore Sn 0 End
| 11>       NewNCore Sb 0 End
| 12>       NewNCore Te 0 End
| 13>       NewNCore I  0 End
| 14>       NewNCore Xe 0 End
| 15>     End
| 16>     %Basis
| 17>       Basis         "maug-cc-pV(T+d)Z"
| 18>       AuxJ          "AutoAux"
| 19>       AuxC          "AutoAux"
| 20>       CABS          "AutoAux"
| 21>       NewECP     Ga "SK-MCDHF-RSC" End
| 22>       NewGTO     Ga "cc-pWCVTZ-PP"
| 23>                     S   1
| 24>                     1         0.0187000              1.0000000
| 25>                     P   1
| 26>                     1         0.0126000              1.0000000
| 27>                     End
| 28>       NewAuxjGTO Ga "AutoAux" End
| 29>       NewAuxcGTO Ga "AutoAux" End
| 30>       NewCabsGTO Ga "AutoAux" End
| 31>       NewECP     Ge "SK-MCDHF-RSC" End
| 32>       NewGTO     Ge "cc-pWCVTZ-PP"
| 33>                     S   1
| 34>                     1         0.0266000              1.0000000
| 35>                     P   1
| 36>                     1         0.0213000              1.0000000
| 37>                     End
| 38>       NewAuxjGTO Ge "AutoAux" End
| 39>       NewAuxcGTO Ge "AutoAux" End
| 40>       NewCabsGTO Ge "AutoAux" End
| 41>       NewECP     As "SK-MCDHF-RSC" End
| 42>       NewGTO     As "cc-pWCVTZ-PP"
| 43>                     S   1
| 44>                     1         0.0330000              1.0000000
| 45>                     P   1
| 46>                     1         0.0282000              1.0000000
| 47>                     End
| 48>       NewAuxjGTO As "AutoAux" End
| 49>       NewAuxcGTO As "AutoAux" End
| 50>       NewCabsGTO As "AutoAux" End
| 51>       NewECP     Se "SK-MCDHF-RSC" End
| 52>       NewGTO     Se "cc-pWCVTZ-PP"
| 53>                     S   1
| 54>                     1         0.0384000              1.0000000
| 55>                     P   1
| 56>                     1         0.0327000              1.0000000
| 57>                     End
| 58>       NewAuxjGTO Se "AutoAux" End
| 59>       NewAuxcGTO Se "AutoAux" End
| 60>       NewCabsGTO Se "AutoAux" End
| 61>       NewECP     Br "SK-MCDHF-RSC" End
| 62>       NewGTO     Br "cc-pWCVTZ-PP"
| 63>                     S   1
| 64>                     1         0.0445000              1.0000000
| 65>                     P   1
| 66>                     1         0.0396000              1.0000000
| 67>                     End
| 68>       NewAuxjGTO Br "AutoAux" End
| 69>       NewAuxcGTO Br "AutoAux" End
| 70>       NewCabsGTO Br "AutoAux" End
| 71>       NewECP     Kr "SK-MCDHF-RSC" End
| 72>       NewGTO     Kr "cc-pWCVTZ-PP"
| 73>                     S   1
| 74>                     1         0.0506000              1.0000000
| 75>                     P   1
| 76>                     1         0.0465000              1.0000000
| 77>                     End
| 78>       NewAuxjGTO Kr "AutoAux" End
| 79>       NewAuxcGTO Kr "AutoAux" End
| 80>       NewCabsGTO Kr "AutoAux" End
| 81>       NewECP     In "SK-MCDHF-RSC" End
| 82>       NewGTO     In "cc-pWCVTZ-PP"
| 83>                     S   1
| 84>                     1         0.0180000              1.0000000
| 85>                     P   1
| 86>                     1         0.0124000              1.0000000
| 87>                     End
| 88>       NewAuxjGTO In "AutoAux" End
| 89>       NewAuxcGTO In "AutoAux" End
| 90>       NewCabsGTO In "AutoAux" End
| 91>       NewECP     Sn "SK-MCDHF-RSC" End
| 92>       NewGTO     Sn "cc-pWCVTZ-PP"
| 93>                     S   1
| 94>                     1         0.0251000              1.0000000
| 95>                     P   1
| 96>                     1         0.0202000              1.0000000
| 97>                     End
| 98>       NewAuxjGTO Sn "AutoAux" End
| 99>       NewAuxcGTO Sn "AutoAux" End
|100>       NewCabsGTO Sn "AutoAux" End
|101>       NewECP     Sb "SK-MCDHF-RSC" End
|102>       NewGTO     Sb "cc-pWCVTZ-PP"
|103>                     S   1
|104>                     1         0.0304000              1.0000000
|105>                     P   1
|106>                     1         0.0271000              1.0000000
|107>                     End
|108>       NewAuxjGTO Sb "AutoAux" End
|109>       NewAuxcGTO Sb "AutoAux" End
|110>       NewCabsGTO Sb "AutoAux" End
|111>       NewECP     Te "SK-MCDHF-RSC" End
|112>       NewGTO     Te "cc-pWCVTZ-PP"
|113>                     S   1
|114>                     1         0.0354000              1.0000000
|115>                     P   1
|116>                     1         0.0306000              1.0000000
|117>                     End
|118>       NewAuxjGTO Te "AutoAux" End
|119>       NewAuxcGTO Te "AutoAux" End
|120>       NewCabsGTO Te "AutoAux" End
|121>       NewECP     I  "SK-MCDHF-RSC" End
|122>       NewGTO     I  "cc-pWCVTZ-PP"
|123>                     S   1
|124>                     1         4.120000E-02           1.0000000
|125>                     P   1
|126>                     1         3.590000E-02           1.0000000
|127>                     End
|128>       NewAuxjGTO I  "AutoAux" End
|129>       NewAuxcGTO I  "AutoAux" End
|130>       NewCabsGTO I  "AutoAux" End
|131>       NewECP     Xe "SK-MCDHF-RSC" End
|132>       NewGTO     Xe "cc-pWCVTZ-PP"
|133>                     S   1
|134>                     1         0.0476000              1.0000000
|135>                     P   1
|136>                     1         0.0420000              1.0000000
|137>                     End
|138>       NewAuxjGTO Xe "AutoAux" End
|139>       NewAuxcGTO Xe "AutoAux" End
|140>       NewCabsGTO Xe "AutoAux" End
|141>     End
|142>
|143>                          ****END OF INPUT****
E(CORR)(corrected)                         ...     -1.087646595
E(TOT)-before F12 corrections              ...   -335.379764531
E(TOT)-after HF correction                 ...   -335.384341448
E(TOT)-after all F12 corrections           ...   -335.384648946
FINAL SINGLE POINT ENERGY      -335.416179061148
|  1>     ! DefGrid3 RIJCOSX TightPNO DLPNO-MP2 MiniPrint NoPop
|  2>     %Method
|  3>       NewNCore Ga 0 End
|  4>       NewNCore Ge 0 End
|  5>       NewNCore As 0 End
|  6>       NewNCore Se 0 End
|  7>       NewNCore Br 0 End
|  8>       NewNCore Kr 0 End
|  9>       NewNCore In 0 End
| 10>       NewNCore Sn 0 End
| 11>       NewNCore Sb 0 End
| 12>       NewNCore Te 0 End
| 13>       NewNCore I  0 End
| 14>       NewNCore Xe 0 End
| 15>     End
| 16>     %Basis
| 17>       Basis         "cc-pWCVTZ"
| 18>       AuxJ          "AutoAux"
| 19>       AuxC          "AutoAux"
| 20>       CABS          "AutoAux"
| 21>       NewECP     Ga "SK-MCDHF-RSC" End
| 22>       NewGTO     Ga "cc-pWCVTZ-PP" End
| 23>       NewAuxjGTO Ga "AutoAux" End
| 24>       NewAuxcGTO Ga "AutoAux" End
| 25>       NewCabsGTO Ga "AutoAux" End
| 26>       NewECP     Ge "SK-MCDHF-RSC" End
| 27>       NewGTO     Ge "cc-pWCVTZ-PP" End
| 28>       NewAuxjGTO Ge "AutoAux" End
| 29>       NewAuxcGTO Ge "AutoAux" End
| 30>       NewCabsGTO Ge "AutoAux" End
| 31>       NewECP     As "SK-MCDHF-RSC" End
| 32>       NewGTO     As "cc-pWCVTZ-PP" End
| 33>       NewAuxjGTO As "AutoAux" End
| 34>       NewAuxcGTO As "AutoAux" End
| 35>       NewCabsGTO As "AutoAux" End
| 36>       NewECP     Se "SK-MCDHF-RSC" End
| 37>       NewGTO     Se "cc-pWCVTZ-PP" End
| 38>       NewAuxjGTO Se "AutoAux" End
| 39>       NewAuxcGTO Se "AutoAux" End
| 40>       NewCabsGTO Se "AutoAux" End
| 41>       NewECP     Br "SK-MCDHF-RSC" End
| 42>       NewGTO     Br "cc-pWCVTZ-PP" End
| 43>       NewAuxjGTO Br "AutoAux" End
| 44>       NewAuxcGTO Br "AutoAux" End
| 45>       NewCabsGTO Br "AutoAux" End
| 46>       NewECP     Kr "SK-MCDHF-RSC" End
| 47>       NewGTO     Kr "cc-pWCVTZ-PP" End
| 48>       NewAuxjGTO Kr "AutoAux" End
| 49>       NewAuxcGTO Kr "AutoAux" End
| 50>       NewCabsGTO Kr "AutoAux" End
| 51>       NewECP     In "SK-MCDHF-RSC" End
| 52>       NewGTO     In "cc-pWCVTZ-PP" End
| 53>       NewAuxjGTO In "AutoAux" End
| 54>       NewAuxcGTO In "AutoAux" End
| 55>       NewCabsGTO In "AutoAux" End
| 56>       NewECP     Sn "SK-MCDHF-RSC" End
| 57>       NewGTO     Sn "cc-pWCVTZ-PP" End
| 58>       NewAuxjGTO Sn "AutoAux" End
| 59>       NewAuxcGTO Sn "AutoAux" End
| 60>       NewCabsGTO Sn "AutoAux" End
| 61>       NewECP     Sb "SK-MCDHF-RSC" End
| 62>       NewGTO     Sb "cc-pWCVTZ-PP" End
| 63>       NewAuxjGTO Sb "AutoAux" End
| 64>       NewAuxcGTO Sb "AutoAux" End
| 65>       NewCabsGTO Sb "AutoAux" End
| 66>       NewECP     Te "SK-MCDHF-RSC" End
| 67>       NewGTO     Te "cc-pWCVTZ-PP" End
| 68>       NewAuxjGTO Te "AutoAux" End
| 69>       NewAuxcGTO Te "AutoAux" End
| 70>       NewCabsGTO Te "AutoAux" End
| 71>       NewECP     I  "SK-MCDHF-RSC" End
| 72>       NewGTO     I  "cc-pWCVTZ-PP" End
| 73>       NewAuxjGTO I  "AutoAux" End
| 74>       NewAuxcGTO I  "AutoAux" End
| 75>       NewCabsGTO I  "AutoAux" End
| 76>       NewECP     Xe "SK-MCDHF-RSC" End
| 77>       NewGTO     Xe "cc-pWCVTZ-PP" End
| 78>       NewAuxjGTO Xe "AutoAux" End
| 79>       NewAuxcGTO Xe "AutoAux" End
| 80>       NewCabsGTO Xe "AutoAux" End
| 81>     End
| 82>
| 83>                          ****END OF INPUT****
MP2 TOTAL ENERGY:     -335.420421381 Eh
FINAL SINGLE POINT ENERGY      -335.420421380819
|  1>     ! DefGrid3 RIJCOSX TightPNO DLPNO-MP2 MiniPrint NoPop
|  2>     %Method
|  3>       NewNCore Li 0 End
|  4>       NewNCore Be 0 End
|  5>       NewNCore B  0 End
|  6>       NewNCore C  0 End
|  7>       NewNCore N  0 End
|  8>       NewNCore O  0 End
|  9>       NewNCore F  0 End
| 10>       NewNCore Ne 0 End
| 11>       NewNCore Na 2 End
| 12>       NewNCore Mg 2 End
| 13>       NewNCore Al 2 End
| 14>       NewNCore Si 2 End
| 15>       NewNCore P  2 End
| 16>       NewNCore S  2 End
| 17>       NewNCore Cl 2 End
| 18>       NewNCore Ar 2 End
| 19>       NewNCore Ga 0 End
| 20>       NewNCore Ge 0 End
| 21>       NewNCore As 0 End
| 22>       NewNCore Se 0 End
| 23>       NewNCore Br 0 End
| 24>       NewNCore Kr 0 End
| 25>       NewNCore In 0 End
| 26>       NewNCore Sn 0 End
| 27>       NewNCore Sb 0 End
| 28>       NewNCore Te 0 End
| 29>       NewNCore I  0 End
| 30>       NewNCore Xe 0 End
| 31>     End
| 32>     %Basis
| 33>       Basis         "cc-pWCVTZ"
| 34>       AuxJ          "AutoAux"
| 35>       AuxC          "AutoAux"
| 36>       CABS          "AutoAux"
| 37>       NewECP     Ga "SK-MCDHF-RSC" End
| 38>       NewGTO     Ga "cc-pWCVTZ-PP" End
| 39>       NewAuxjGTO Ga "AutoAux" End
| 40>       NewAuxcGTO Ga "AutoAux" End
| 41>       NewCabsGTO Ga "AutoAux" End
| 42>       NewECP     Ge "SK-MCDHF-RSC" End
| 43>       NewGTO     Ge "cc-pWCVTZ-PP" End
| 44>       NewAuxjGTO Ge "AutoAux" End
| 45>       NewAuxcGTO Ge "AutoAux" End
| 46>       NewCabsGTO Ge "AutoAux" End
| 47>       NewECP     As "SK-MCDHF-RSC" End
| 48>       NewGTO     As "cc-pWCVTZ-PP" End
| 49>       NewAuxjGTO As "AutoAux" End
| 50>       NewAuxcGTO As "AutoAux" End
| 51>       NewCabsGTO As "AutoAux" End
| 52>       NewECP     Se "SK-MCDHF-RSC" End
| 53>       NewGTO     Se "cc-pWCVTZ-PP" End
| 54>       NewAuxjGTO Se "AutoAux" End
| 55>       NewAuxcGTO Se "AutoAux" End
| 56>       NewCabsGTO Se "AutoAux" End
| 57>       NewECP     Br "SK-MCDHF-RSC" End
| 58>       NewGTO     Br "cc-pWCVTZ-PP" End
| 59>       NewAuxjGTO Br "AutoAux" End
| 60>       NewAuxcGTO Br "AutoAux" End
| 61>       NewCabsGTO Br "AutoAux" End
| 62>       NewECP     Kr "SK-MCDHF-RSC" End
| 63>       NewGTO     Kr "cc-pWCVTZ-PP" End
| 64>       NewAuxjGTO Kr "AutoAux" End
| 65>       NewAuxcGTO Kr "AutoAux" End
| 66>       NewCabsGTO Kr "AutoAux" End
| 67>       NewECP     In "SK-MCDHF-RSC" End
| 68>       NewGTO     In "cc-pWCVTZ-PP" End
| 69>       NewAuxjGTO In "AutoAux" End
| 70>       NewAuxcGTO In "AutoAux" End
| 71>       NewCabsGTO In "AutoAux" End
| 72>       NewECP     Sn "SK-MCDHF-RSC" End
| 73>       NewGTO     Sn "cc-pWCVTZ-PP" End
| 74>       NewAuxjGTO Sn "AutoAux" End
| 75>       NewAuxcGTO Sn "AutoAux" End
| 76>       NewCabsGTO Sn "AutoAux" End
| 77>       NewECP     Sb "SK-MCDHF-RSC" End
| 78>       NewGTO     Sb "cc-pWCVTZ-PP" End
| 79>       NewAuxjGTO Sb "AutoAux" End
| 80>       NewAuxcGTO Sb "AutoAux" End
| 81>       NewCabsGTO Sb "AutoAux" End
| 82>       NewECP     Te "SK-MCDHF-RSC" End
| 83>       NewGTO     Te "cc-pWCVTZ-PP" End
| 84>       NewAuxjGTO Te "AutoAux" End
| 85>       NewAuxcGTO Te "AutoAux" End
| 86>       NewCabsGTO Te "AutoAux" End
| 87>       NewECP     I  "SK-MCDHF-RSC" End
| 88>       NewGTO     I  "cc-pWCVTZ-PP" End
| 89>       NewAuxjGTO I  "AutoAux" End
| 90>       NewAuxcGTO I  "AutoAux" End
| 91>       NewCabsGTO I  "AutoAux" End
| 92>       NewECP     Xe "SK-MCDHF-RSC" End
| 93>       NewGTO     Xe "cc-pWCVTZ-PP" End
| 94>       NewAuxjGTO Xe "AutoAux" End
| 95>       NewAuxcGTO Xe "AutoAux" End
| 96>       NewCabsGTO Xe "AutoAux" End
| 97>     End
| 98>
| 99>                          ****END OF INPUT****

CARTESIAN COORDINATES (ANGSTROEM)
---------------------------------
  I     -0.000000   -0.000000    0.324673
  C     -0.000000   -0.000000   -1.802260
  H      0.000000    1.032733   -2.131368
  H      0.894373   -0.516367   -2.131368
  H     -0.894373   -0.516367   -2.131368

ORBITAL ENERGIES
----------------

  NO   OCC          E(Eh)            E(eV)
   0   2.0000     -11.278851      -306.9131
   1   2.0000      -7.711974      -209.8535
   2   2.0000      -5.542481      -150.8186
   3   2.0000      -5.534785      -150.6092
   4   2.0000      -5.534785      -150.6092
   5   2.0000      -2.272442       -61.8363
   6   2.0000      -2.268132       -61.7190
   7   2.0000      -2.268132       -61.7190
   8   2.0000      -2.258802       -61.4651
   9   2.0000      -2.258799       -61.4650
  10   2.0000      -1.001608       -27.2551
  11   2.0000      -0.837918       -22.8009
  12   2.0000      -0.605045       -16.4641
  13   2.0000      -0.605044       -16.4641
  14   2.0000      -0.463609       -12.6155
  15   2.0000      -0.360927        -9.8213
  16   2.0000      -0.360926        -9.8213
  17   0.0000       0.095599         2.6014
  18   0.0000       0.162867         4.4318
  19   0.0000       0.201077         5.4716
  20   0.0000       0.201078         5.4716
  21   0.0000       0.271571         7.3898

Total SCF time: 0 days 0 hours 0 min 3 sec

MP2 TOTAL ENERGY:     -335.466187714 Eh
FINAL SINGLE POINT ENERGY      -335.466187713794

DIPOLE MOMENT
-------------
                                X             Y             Z
Electronic contribution:      0.00000      -0.00000      22.35339
Nuclear contribution   :      0.00000      -0.00000     -23.11325
                        -----------------------------------------
Total Dipole Moment    :      0.00000      -0.00001      -0.75986
                        -----------------------------------------
Magnitude (a.u.)       :      0.75986
Magnitude (Debye)      :      1.93141

Rotational constants in cm-1:     5.226836     0.253386     0.253386
Rotational constants in MHz : 156696.600267  7596.333598  7596.333474

                             ****ORCA TERMINATED NORMALLY****
TOTAL RUN TIME: 0 days 0 hours 19 minutes 13 seconds 387 msec
