                         Program Version 5.0.1 -  RELEASE  -
|  1> %Maxcore 1000
|  2>  %Pal nprocs 5 End
|  3>
|  4>  * xyz 0 1
|  5>  C        0.000000    0.000000    0.661989
|  6>  C        0.000000    0.000000   -0.661989
|  7>  H        0.000000    0.920483    1.231826
|  8>  H        0.000000   -0.920483    1.231826
|  9>  H        0.000000    0.920483   -1.231826
| 10>  H        0.000000   -0.920483   -1.231826
| 11>  *
| 12>
| 13>
| 14>                          ****END OF INPUT****
|  1>     ! DefGrid3 RIJCOSX TightPNO DLPNO-CCSD(T1)-F12 MiniPrint NoPop
|  2>     %Basis
|  3>       Basis "maug-cc-pV(D+d)Z"
|  4>       AuxJ  "AutoAux"
|  5>       AuxC  "AutoAux"
|  6>       CABS  "AutoAux"
|  7>     End
|  8>
|  9>                          ****END OF INPUT****
E(0)                                       ...    -78.041993588
E(CORR)(strong-pairs)                      ...     -0.305165115
E(CORR)(weak-pairs)                        ...     -0.000020289
E(CORR)(corrected)                         ...     -0.305185404
E(TOT)-before F12 corrections              ...    -78.347178992
E(TOT)-after HF correction                 ...    -78.371228620
FINAL SINGLE POINT ENERGY       -78.443857959943
|  1>     ! DefGrid3 RIJCOSX TightPNO DLPNO-CCSD(T1)-F12 MiniPrint NoPop
|  2>     %Basis
|  3>       Basis "maug-cc-pV(T+d)Z"
|  4>       AuxJ  "AutoAux"
|  5>       AuxC  "AutoAux"
|  6>       CABS  "AutoAux"
|  7>     End
|  8>
|  9>                          ****END OF INPUT****
E(CORR)(corrected)                         ...     -0.359761997
E(TOT)-before F12 corrections              ...    -78.424343057
E(TOT)-after HF correction                 ...    -78.429047689
E(TOT)-after all F12 corrections           ...    -78.449368864
FINAL SINGLE POINT ENERGY       -78.464264177968
|  1>     ! DefGrid3 RIJCOSX TightPNO DLPNO-MP2 MiniPrint NoPop
|  2>     %Basis
|  3>       Basis "cc-pWCVTZ"
|  4>       AuxJ  "AutoAux"
|  5>       AuxC  "AutoAux"
|  6>       CABS  "AutoAux"
|  7>     End
|  8>
|  9>                          ****END OF INPUT****
MP2 TOTAL ENERGY:      -78.404156468 Eh
FINAL SINGLE POINT ENERGY       -78.404156467722
|  1>     ! DKH DefGrid3 RIJCOSX TightPNO DLPNO-MP2 MiniPrint NoPop
|  2>     %Method
|  3>       NewNCore Li 0 End
|  4>       NewNCore Be 0 End
|  5>       NewNCore B  0 End
|  6>       NewNCore C  0 End
|  7>       NewNCore N  0 End
|  8>       NewNCore O  0 End
|  9>       NewNCore F  0 End
| 10>       NewNCore Ne 0 End
| 11>       NewNCore Na 2 End
| 12>       NewNCore Mg 2 End
| 13>       NewNCore Al 2 End
| 14>       NewNCore Si 2 End
| 15>       NewNCore P  2 End
| 16>       NewNCore S  2 End
| 17>       NewNCore Cl 2 End
| 18>       NewNCore Ar 2 End
| 19>     End
| 20>     %Basis
| 21>       Basis "cc-pWCVTZ"
| 22>       AuxJ  "AutoAux"
| 23>       AuxC  "AutoAux"
| 24>       CABS  "AutoAux"
| 25>     End
| 26>
| 27>                          ****END OF INPUT****

CARTESIAN COORDINATES (ANGSTROEM)
---------------------------------
  C      0.000000    0.000000    0.661989
  C      0.000000    0.000000   -0.661989
  H      0.000000    0.920483    1.231826
  H      0.000000   -0.920483    1.231826
  H      0.000000    0.920483   -1.231826
  H      0.000000   -0.920483   -1.231826

ORBITAL ENERGIES
----------------

  NO   OCC          E(Eh)            E(eV)
   0   2.0000     -11.231655      -305.6289
   1   2.0000     -11.229858      -305.5800
   2   2.0000      -1.035479       -28.1768
   3   2.0000      -0.791697       -21.5432
   4   2.0000      -0.642169       -17.4743
   5   2.0000      -0.589239       -16.0340
   6   2.0000      -0.504285       -13.7223
   7   2.0000      -0.378432       -10.2976
   8   0.0000       0.153744         4.1836
   9   0.0000       0.159204         4.3322
  10   0.0000       0.186347         5.0708
  11   0.0000       0.190772         5.1912
  12   0.0000       0.241577         6.5737

Total SCF time: 0 days 0 hours 0 min 3 sec

MP2 TOTAL ENERGY:      -78.524426858 Eh
FINAL SINGLE POINT ENERGY       -78.524426857520

DIPOLE MOMENT
-------------
                                X             Y             Z
Electronic contribution:     -0.00000      -0.00000      -0.00000
Nuclear contribution   :      0.00000       0.00000       0.00000
                        -----------------------------------------
Total Dipole Moment    :     -0.00000      -0.00000      -0.00000
                        -----------------------------------------
Magnitude (a.u.)       :      0.00000
Magnitude (Debye)      :      0.00000

Rotational constants in cm-1:     4.934519     1.012758     0.840296
Rotational constants in MHz : 147933.160668 30361.719210 25191.441779

                             ****ORCA TERMINATED NORMALLY****
TOTAL RUN TIME: 0 days 0 hours 4 minutes 4 seconds 642 msec
