                         Program Version 5.0.1 -  RELEASE  -
|  1> %Maxcore 1000
|  2>  %Pal nprocs 5 End
|  3>
|  4>  * xyz 0 1
|  5>  C        1.174266   -0.402393    0.000000
|  6>  C        0.000000    0.553968    0.000000
|  7>  O       -1.198609   -0.219376    0.000000
|  8>  H       -1.951507    0.377618    0.000000
|  9>  H        0.042676    1.200562    0.884607
| 10>  H        0.042676    1.200562   -0.884607
| 11>  H        2.116030    0.148166    0.000000
| 12>  H        1.146699   -1.040676    0.883284
| 13>  H        1.146699   -1.040676   -0.883284
| 14>  *
| 15>
| 16>
| 17>                          ****END OF INPUT****
|  1>     ! DefGrid3 RIJCOSX TightPNO DLPNO-CCSD(T1)-F12 MiniPrint NoPop
|  2>     %Basis
|  3>       Basis "maug-cc-pV(D+d)Z"
|  4>       AuxJ  "AutoAux"
|  5>       AuxC  "AutoAux"
|  6>       CABS  "AutoAux"
|  7>     End
|  8>
|  9>                          ****END OF INPUT****
E(0)                                       ...   -154.100086226
E(CORR)(strong-pairs)                      ...     -0.523622891
E(CORR)(weak-pairs)                        ...     -0.000094284
E(CORR)(corrected)                         ...     -0.523717174
E(TOT)-before F12 corrections              ...   -154.623803400
E(TOT)-after HF correction                 ...   -154.672888629
FINAL SINGLE POINT ENERGY      -154.815058842551
|  1>     ! DefGrid3 RIJCOSX TightPNO DLPNO-CCSD(T1)-F12 MiniPrint NoPop
|  2>     %Basis
|  3>       Basis "maug-cc-pV(T+d)Z"
|  4>       AuxJ  "AutoAux"
|  5>       AuxC  "AutoAux"
|  6>       CABS  "AutoAux"
|  7>     End
|  8>
|  9>                          ****END OF INPUT****
E(CORR)(corrected)                         ...     -0.631809884
E(TOT)-before F12 corrections              ...   -154.776365795
E(TOT)-after HF correction                 ...   -154.786561063
E(TOT)-after all F12 corrections           ...   -154.829721193
FINAL SINGLE POINT ENERGY      -154.852180227243
|  1>     ! DefGrid3 RIJCOSX TightPNO DLPNO-MP2 MiniPrint NoPop
|  2>     %Basis
|  3>       Basis "cc-pWCVTZ"
|  4>       AuxJ  "AutoAux"
|  5>       AuxC  "AutoAux"
|  6>       CABS  "AutoAux"
|  7>     End
|  8>
|  9>                          ****END OF INPUT****
MP2 TOTAL ENERGY:     -154.753976540 Eh
FINAL SINGLE POINT ENERGY      -154.753976539703
|  1>     ! DKH DefGrid3 RIJCOSX TightPNO DLPNO-MP2 MiniPrint NoPop
|  2>     %Method
|  3>       NewNCore Li 0 End
|  4>       NewNCore Be 0 End
|  5>       NewNCore B  0 End
|  6>       NewNCore C  0 End
|  7>       NewNCore N  0 End
|  8>       NewNCore O  0 End
|  9>       NewNCore F  0 End
| 10>       NewNCore Ne 0 End
| 11>       NewNCore Na 2 End
| 12>       NewNCore Mg 2 End
| 13>       NewNCore Al 2 End
| 14>       NewNCore Si 2 End
| 15>       NewNCore P  2 End
| 16>       NewNCore S  2 End
| 17>       NewNCore Cl 2 End
| 18>       NewNCore Ar 2 End
| 19>     End
| 20>     %Basis
| 21>       Basis "cc-pWCVTZ"
| 22>       AuxJ  "AutoAux"
| 23>       AuxC  "AutoAux"
| 24>       CABS  "AutoAux"
| 25>     End
| 26>
| 27>                          ****END OF INPUT****

CARTESIAN COORDINATES (ANGSTROEM)
---------------------------------
  C      1.174266   -0.402393    0.000000
  C      0.000000    0.553968    0.000000
  O     -1.198609   -0.219376    0.000000
  H     -1.951507    0.377618    0.000000
  H      0.042676    1.200562    0.884607
  H      0.042676    1.200562   -0.884607
  H      2.116030    0.148166    0.000000
  H      1.146699   -1.040676    0.883284
  H      1.146699   -1.040676   -0.883284

ORBITAL ENERGIES
----------------

  NO   OCC          E(Eh)            E(eV)
   0   2.0000     -20.561388      -559.5038
   1   2.0000     -11.276754      -306.8561
   2   2.0000     -11.214327      -305.1574
   3   2.0000      -1.353316       -36.8256
   4   2.0000      -1.011262       -27.5178
   5   2.0000      -0.833200       -22.6725
   6   2.0000      -0.695337       -18.9211
   7   2.0000      -0.642361       -17.4795
   8   2.0000      -0.568446       -15.4682
   9   2.0000      -0.531771       -14.4702
  10   2.0000      -0.523789       -14.2530
  11   2.0000      -0.486715       -13.2442
  12   2.0000      -0.440015       -11.9734
  13   0.0000       0.138428         3.7668
  14   0.0000       0.168153         4.5757
  15   0.0000       0.198035         5.3888
  16   0.0000       0.200727         5.4621
  17   0.0000       0.222636         6.0582

Total SCF time: 0 days 0 hours 0 min 10 sec

MP2 TOTAL ENERGY:     -154.974313129 Eh
FINAL SINGLE POINT ENERGY      -154.974313128599

DIPOLE MOMENT
-------------
                                X             Y             Z
Electronic contribution:     -2.63278      -0.23250      -0.00000
Nuclear contribution   :      2.67566       0.89256       0.00000
                        -----------------------------------------
Total Dipole Moment    :      0.04288       0.66007      -0.00000
                        -----------------------------------------
Magnitude (a.u.)       :      0.66146
Magnitude (Debye)      :      1.68129

Rotational constants in cm-1:     1.176223     0.312024     0.271644
Rotational constants in MHz : 35262.282415  9354.254825  8143.687185

                             ****ORCA TERMINATED NORMALLY****
TOTAL RUN TIME: 0 days 0 hours 10 minutes 18 seconds 471 msec
