                         Program Version 5.0.1 -  RELEASE  -
|  1> %Maxcore 1000
|  2>  %Pal nprocs 5 End
|  3>
|  4>  * xyz 0 1
|  5>  O        0.000000    0.000000    0.117688
|  6>  H        0.000000    0.760247   -0.470754
|  7>  H        0.000000   -0.760247   -0.470754
|  8>  *
|  9>
| 10>
| 11>                          ****END OF INPUT****
|  1>     ! DefGrid3 RIJCOSX TightPNO DLPNO-CCSD(T1)-F12 MiniPrint NoPop
|  2>     %Basis
|  3>       Basis "maug-cc-pV(D+d)Z"
|  4>       AuxJ  "AutoAux"
|  5>       AuxC  "AutoAux"
|  6>       CABS  "AutoAux"
|  7>     End
|  8>
|  9>                          ****END OF INPUT****
E(0)                                       ...    -76.037295677
E(CORR)(strong-pairs)                      ...     -0.216521181
E(CORR)(weak-pairs)                        ...     -0.000001187
E(CORR)(corrected)                         ...     -0.216522367
E(TOT)-before F12 corrections              ...    -76.253818044
E(TOT)-after HF correction                 ...    -76.278070425
FINAL SINGLE POINT ENERGY       -76.344991931508
|  1>     ! DefGrid3 RIJCOSX TightPNO DLPNO-CCSD(T1)-F12 MiniPrint NoPop
|  2>     %Basis
|  3>       Basis "maug-cc-pV(T+d)Z"
|  4>       AuxJ  "AutoAux"
|  5>       AuxC  "AutoAux"
|  6>       CABS  "AutoAux"
|  7>     End
|  8>
|  9>                          ****END OF INPUT****
E(CORR)(corrected)                         ...     -0.269201758
E(TOT)-before F12 corrections              ...    -76.329047216
E(TOT)-after HF correction                 ...    -76.334542022
E(TOT)-after all F12 corrections           ...    -76.356169214
FINAL SINGLE POINT ENERGY       -76.364167171716
|  1>     ! DefGrid3 RIJCOSX TightPNO DLPNO-MP2 MiniPrint NoPop
|  2>     %Basis
|  3>       Basis "cc-pWCVTZ"
|  4>       AuxJ  "AutoAux"
|  5>       AuxC  "AutoAux"
|  6>       CABS  "AutoAux"
|  7>     End
|  8>
|  9>                          ****END OF INPUT****
MP2 TOTAL ENERGY:      -76.323769727 Eh
FINAL SINGLE POINT ENERGY       -76.323769726873
|  1>     ! DKH DefGrid3 RIJCOSX TightPNO DLPNO-MP2 MiniPrint NoPop
|  2>     %Method
|  3>       NewNCore Li 0 End
|  4>       NewNCore Be 0 End
|  5>       NewNCore B  0 End
|  6>       NewNCore C  0 End
|  7>       NewNCore N  0 End
|  8>       NewNCore O  0 End
|  9>       NewNCore F  0 End
| 10>       NewNCore Ne 0 End
| 11>       NewNCore Na 2 End
| 12>       NewNCore Mg 2 End
| 13>       NewNCore Al 2 End
| 14>       NewNCore Si 2 End
| 15>       NewNCore P  2 End
| 16>       NewNCore S  2 End
| 17>       NewNCore Cl 2 End
| 18>       NewNCore Ar 2 End
| 19>     End
| 20>     %Basis
| 21>       Basis "cc-pWCVTZ"
| 22>       AuxJ  "AutoAux"
| 23>       AuxC  "AutoAux"
| 24>       CABS  "AutoAux"
| 25>     End
| 26>
| 27>                          ****END OF INPUT****

CARTESIAN COORDINATES (ANGSTROEM)
---------------------------------
  O      0.000000    0.000000    0.117688
  H      0.000000    0.760247   -0.470754
  H      0.000000   -0.760247   -0.470754

ORBITAL ENERGIES
----------------

  NO   OCC          E(Eh)            E(eV)
   0   2.0000     -20.568275      -559.6912
   1   2.0000      -1.345054       -36.6008
   2   2.0000      -0.707368       -19.2485
   3   2.0000      -0.577044       -15.7022
   4   2.0000      -0.504071       -13.7165
   5   0.0000       0.140078         3.8117
   6   0.0000       0.203706         5.5431
   7   0.0000       0.542180        14.7535
   8   0.0000       0.598748        16.2928
   9   0.0000       0.666075        18.1248

Total SCF time: 0 days 0 hours 0 min 2 sec

MP2 TOTAL ENERGY:      -76.424172598 Eh
FINAL SINGLE POINT ENERGY       -76.424172598177

DIPOLE MOMENT
-------------
                                X             Y             Z
Electronic contribution:      0.00000       0.00000       0.18297
Nuclear contribution   :      0.00000       0.00000      -0.97959
                        -----------------------------------------
Total Dipole Moment    :      0.00000       0.00000      -0.79662
                        -----------------------------------------
Magnitude (a.u.)       :      0.79662
Magnitude (Debye)      :      2.02485

Rotational constants in cm-1:    27.191958    14.467615     9.443274
Rotational constants in MHz : 815194.382788 433728.186196 283102.243345

                             ****ORCA TERMINATED NORMALLY****
TOTAL RUN TIME: 0 days 0 hours 1 minutes 2 seconds 947 msec
