                         Program Version 5.0.1 -  RELEASE  -
|  1> %Maxcore 1000
|  2>  %Pal nprocs 6 End
|  3>
|  4>  * xyz 0 1
|  5>  F        0.000000    0.000000    0.750386
|  6>  C        0.000000    0.000000   -0.629363
|  7>  H       -1.026909    0.000000   -0.992430
|  8>  H        0.513454    0.889329   -0.992430
|  9>  H        0.513454   -0.889329   -0.992430
| 10>  *
| 11>
| 12>
| 13>                          ****END OF INPUT****
|  1>     ! DefGrid3 RIJCOSX TightPNO DLPNO-CCSD(T1)-F12 MiniPrint NoPop
|  2>     %Basis
|  3>       Basis "maug-cc-pV(D+d)Z"
|  4>       AuxJ  "AutoAux"
|  5>       AuxC  "AutoAux"
|  6>       CABS  "AutoAux"
|  7>     End
|  8>
|  9>                          ****END OF INPUT****
E(0)                                       ...   -139.053228748
E(CORR)(strong-pairs)                      ...     -0.360918360
E(CORR)(weak-pairs)                        ...     -0.000031529
E(CORR)(corrected)                         ...     -0.360949889
E(TOT)-before F12 corrections              ...   -139.414178637
E(TOT)-after HF correction                 ...   -139.463302035
FINAL SINGLE POINT ENERGY      -139.582654304744
|  1>     ! DefGrid3 RIJCOSX TightPNO DLPNO-CCSD(T1)-F12 MiniPrint NoPop
|  2>     %Basis
|  3>       Basis "maug-cc-pV(T+d)Z"
|  4>       AuxJ  "AutoAux"
|  5>       AuxC  "AutoAux"
|  6>       CABS  "AutoAux"
|  7>     End
|  8>
|  9>                          ****END OF INPUT****
E(CORR)(corrected)                         ...     -0.451602295
E(TOT)-before F12 corrections              ...   -139.548148214
E(TOT)-after HF correction                 ...   -139.558495863
E(TOT)-after all F12 corrections           ...   -139.597635559
FINAL SINGLE POINT ENERGY      -139.611055808142
|  1>     ! DefGrid3 RIJCOSX TightPNO DLPNO-MP2 MiniPrint NoPop
|  2>     %Basis
|  3>       Basis "cc-pWCVTZ"
|  4>       AuxJ  "AutoAux"
|  5>       AuxC  "AutoAux"
|  6>       CABS  "AutoAux"
|  7>     End
|  8>
|  9>                          ****END OF INPUT****
MP2 TOTAL ENERGY:     -139.538158302 Eh
FINAL SINGLE POINT ENERGY      -139.538158301766
|  1>     ! DKH DefGrid3 RIJCOSX TightPNO DLPNO-MP2 MiniPrint NoPop
|  2>     %Method
|  3>       NewNCore Li 0 End
|  4>       NewNCore Be 0 End
|  5>       NewNCore B  0 End
|  6>       NewNCore C  0 End
|  7>       NewNCore N  0 End
|  8>       NewNCore O  0 End
|  9>       NewNCore F  0 End
| 10>       NewNCore Ne 0 End
| 11>       NewNCore Na 2 End
| 12>       NewNCore Mg 2 End
| 13>       NewNCore Al 2 End
| 14>       NewNCore Si 2 End
| 15>       NewNCore P  2 End
| 16>       NewNCore S  2 End
| 17>       NewNCore Cl 2 End
| 18>       NewNCore Ar 2 End
| 19>     End
| 20>     %Basis
| 21>       Basis "cc-pWCVTZ"
| 22>       AuxJ  "AutoAux"
| 23>       AuxC  "AutoAux"
| 24>       CABS  "AutoAux"
| 25>     End
| 26>
| 27>                          ****END OF INPUT****

CARTESIAN COORDINATES (ANGSTROEM)
---------------------------------
  F      0.000000    0.000000    0.750386
  C      0.000000    0.000000   -0.629363
  H     -1.026909    0.000000   -0.992430
  H      0.513454    0.889329   -0.992430
  H      0.513454   -0.889329   -0.992430

ORBITAL ENERGIES
----------------

  NO   OCC          E(Eh)            E(eV)
   0   2.0000     -26.293783      -715.4902
   1   2.0000     -11.307191      -307.6843
   2   2.0000      -1.587468       -43.1972
   3   2.0000      -0.954077       -25.9618
   4   2.0000      -0.692942       -18.8559
   5   2.0000      -0.692940       -18.8558
   6   2.0000      -0.673600       -18.3296
   7   2.0000      -0.527907       -14.3651
   8   2.0000      -0.527905       -14.3650
   9   0.0000       0.143054         3.8927
  10   0.0000       0.214865         5.8468
  11   0.0000       0.214866         5.8468
  12   0.0000       0.235231         6.4010
  13   0.0000       0.380510        10.3542

Total SCF time: 0 days 0 hours 0 min 2 sec

MP2 TOTAL ENERGY:     -139.733268354 Eh
FINAL SINGLE POINT ENERGY      -139.733268353548

DIPOLE MOMENT
-------------
                                X             Y             Z
Electronic contribution:      0.00001       0.00000       2.89725
Nuclear contribution   :     -0.00000       0.00000      -3.69349
                        -----------------------------------------
Total Dipole Moment    :      0.00001       0.00000      -0.79624
                        -----------------------------------------
Magnitude (a.u.)       :      0.79624
Magnitude (Debye)      :      2.02388

Rotational constants in cm-1:     5.286296     0.858923     0.858923
Rotational constants in MHz : 158479.165358 25749.855499 25749.855465

                             ****ORCA TERMINATED NORMALLY****
TOTAL RUN TIME: 0 days 0 hours 1 minutes 23 seconds 435 msec
