                         Program Version 5.0.1 -  RELEASE  -
|  1> %Maxcore 1000
|  2>  %Pal nprocs 1 End
|  3>
|  4>  * xyz 0 1
|  5>  C       -0.046573    0.662925    0.000000
|  6>  H       -1.087867    0.977315    0.000000
|  7>  H        0.437742    1.073831    0.889854
|  8>  H        0.437742    1.073831   -0.889854
|  9>  O       -0.046573   -0.756341    0.000000
| 10>  H        0.864403   -1.051800    0.000000
| 11>  *
| 12>
| 13>
| 14>                          ****END OF INPUT****
|  1>     ! DefGrid3 RIJCOSX TightPNO DLPNO-CCSD(T1)-F12 MiniPrint NoPop
|  2>     %Basis
|  3>       Basis "maug-cc-pV(D+d)Z"
|  4>       AuxJ  "AutoAux"
|  5>       AuxC  "AutoAux"
|  6>       CABS  "AutoAux"
|  7>     End
|  8>
|  9>                          ****END OF INPUT****
E(0)                                       ...   -115.057153381
E(CORR)(strong-pairs)                      ...     -0.368022292
E(CORR)(weak-pairs)                        ...     -0.000033146
E(CORR)(corrected)                         ...     -0.368055439
E(TOT)-before F12 corrections              ...   -115.425208819
E(TOT)-after HF correction                 ...   -115.463211953
FINAL SINGLE POINT ENERGY      -115.567302950491
|  1>     ! DefGrid3 RIJCOSX TightPNO DLPNO-CCSD(T1)-F12 MiniPrint NoPop
|  2>     %Basis
|  3>       Basis "maug-cc-pV(T+d)Z"
|  4>       AuxJ  "AutoAux"
|  5>       AuxC  "AutoAux"
|  6>       CABS  "AutoAux"
|  7>     End
|  8>
|  9>                          ****END OF INPUT****
E(CORR)(corrected)                         ...     -0.447980878
E(TOT)-before F12 corrections              ...   -115.539512879
E(TOT)-after HF correction                 ...   -115.547493612
E(TOT)-after all F12 corrections           ...   -115.579823205
FINAL SINGLE POINT ENERGY      -115.594819836407
|  1>     ! DefGrid3 RIJCOSX TightPNO DLPNO-MP2 MiniPrint NoPop
|  2>     %Basis
|  3>       Basis "cc-pWCVTZ"
|  4>       AuxJ  "AutoAux"
|  5>       AuxC  "AutoAux"
|  6>       CABS  "AutoAux"
|  7>     End
|  8>
|  9>                          ****END OF INPUT****
MP2 TOTAL ENERGY:     -115.524977214 Eh
FINAL SINGLE POINT ENERGY      -115.524977213839
|  1>     ! DKH DefGrid3 RIJCOSX TightPNO DLPNO-MP2 MiniPrint NoPop
|  2>     %Method
|  3>       NewNCore Li 0 End
|  4>       NewNCore Be 0 End
|  5>       NewNCore B  0 End
|  6>       NewNCore C  0 End
|  7>       NewNCore N  0 End
|  8>       NewNCore O  0 End
|  9>       NewNCore F  0 End
| 10>       NewNCore Ne 0 End
| 11>       NewNCore Na 2 End
| 12>       NewNCore Mg 2 End
| 13>       NewNCore Al 2 End
| 14>       NewNCore Si 2 End
| 15>       NewNCore P  2 End
| 16>       NewNCore S  2 End
| 17>       NewNCore Cl 2 End
| 18>       NewNCore Ar 2 End
| 19>     End
| 20>     %Basis
| 21>       Basis "cc-pWCVTZ"
| 22>       AuxJ  "AutoAux"
| 23>       AuxC  "AutoAux"
| 24>       CABS  "AutoAux"
| 25>     End
| 26>
| 27>                          ****END OF INPUT****

CARTESIAN COORDINATES (ANGSTROEM)
---------------------------------
  C     -0.046573    0.662925    0.000000
  H     -1.087867    0.977315    0.000000
  H      0.437742    1.073831    0.889854
  H      0.437742    1.073831   -0.889854
  O     -0.046573   -0.756341    0.000000
  H      0.864403   -1.051800    0.000000

ORBITAL ENERGIES
----------------

  NO   OCC          E(Eh)            E(eV)
   0   2.0000     -20.563941      -559.5733
   1   2.0000     -11.272418      -306.7381
   2   2.0000      -1.355802       -36.8932
   3   2.0000      -0.924002       -25.1434
   4   2.0000      -0.688277       -18.7290
   5   2.0000      -0.618206       -16.8222
   6   2.0000      -0.590539       -16.0694
   7   2.0000      -0.501596       -13.6491
   8   2.0000      -0.448798       -12.2124
   9   0.0000       0.138357         3.7649
  10   0.0000       0.177943         4.8421
  11   0.0000       0.220245         5.9932
  12   0.0000       0.223800         6.0899
  13   0.0000       0.287846         7.8327

Total SCF time: 0 days 0 hours 0 min 12 sec

MP2 TOTAL ENERGY:     -115.685202169 Eh
FINAL SINGLE POINT ENERGY      -115.685202169024

DIPOLE MOMENT
-------------
                                X             Y             Z
Electronic contribution:     -0.12300      -1.76314      -0.00000
Nuclear contribution   :      0.68713       2.17469       0.00000
                        -----------------------------------------
Total Dipole Moment    :      0.56413       0.41155      -0.00000
                        -----------------------------------------
Magnitude (a.u.)       :      0.69830
Magnitude (Debye)      :      1.77493

Rotational constants in cm-1:     4.291519     0.828508     0.799607
Rotational constants in MHz : 128656.504737 24838.043121 23971.603041

                             ****ORCA TERMINATED NORMALLY****
TOTAL RUN TIME: 0 days 0 hours 7 minutes 56 seconds 2 msec
