                         Program Version 5.0.1 -  RELEASE  -
|  1> %Maxcore 1000
|  2>  %Pal nprocs 5 End
|  3>
|  4>  * xyz -1 1
|  5>  O        0.000000    0.000000    0.107924
|  6>  H        0.000000    0.000000   -0.863393
|  7>  *
|  8>
|  9>
| 10>                          ****END OF INPUT****
|  1>     ! DefGrid3 RIJCOSX TightPNO DLPNO-CCSD(T1)-F12 MiniPrint NoPop
|  2>     %Basis
|  3>       Basis "maug-cc-pV(D+d)Z"
|  4>       AuxJ  "AutoAux"
|  5>       AuxC  "AutoAux"
|  6>       CABS  "AutoAux"
|  7>     End
|  8>
|  9>                          ****END OF INPUT****
E(0)                                       ...    -75.392800445
E(CORR)(strong-pairs)                      ...     -0.223777953
E(CORR)(weak-pairs)                        ...      0.000000000
E(CORR)(corrected)                         ...     -0.223777953
E(TOT)-before F12 corrections              ...    -75.616578398
E(TOT)-after HF correction                 ...    -75.636691914
FINAL SINGLE POINT ENERGY       -75.706496089788
|  1>     ! DefGrid3 RIJCOSX TightPNO DLPNO-CCSD(T1)-F12 MiniPrint NoPop
|  2>     %Basis
|  3>       Basis "maug-cc-pV(T+d)Z"
|  4>       AuxJ  "AutoAux"
|  5>       AuxC  "AutoAux"
|  6>       CABS  "AutoAux"
|  7>     End
|  8>
|  9>                          ****END OF INPUT****
E(CORR)(corrected)                         ...     -0.277292866
E(TOT)-before F12 corrections              ...    -75.688576553
E(TOT)-after HF correction                 ...    -75.693380460
E(TOT)-after all F12 corrections           ...    -75.716297042
FINAL SINGLE POINT ENERGY       -75.726845202909
|  1>     ! DefGrid3 RIJCOSX TightPNO DLPNO-MP2 MiniPrint NoPop
|  2>     %Basis
|  3>       Basis "cc-pWCVTZ"
|  4>       AuxJ  "AutoAux"
|  5>       AuxC  "AutoAux"
|  6>       CABS  "AutoAux"
|  7>     End
|  8>
|  9>                          ****END OF INPUT****
MP2 TOTAL ENERGY:      -75.653420387 Eh
FINAL SINGLE POINT ENERGY       -75.653420387380
|  1>     ! DKH DefGrid3 RIJCOSX TightPNO DLPNO-MP2 MiniPrint NoPop
|  2>     %Method
|  3>       NewNCore Li 0 End
|  4>       NewNCore Be 0 End
|  5>       NewNCore B  0 End
|  6>       NewNCore C  0 End
|  7>       NewNCore N  0 End
|  8>       NewNCore O  0 End
|  9>       NewNCore F  0 End
| 10>       NewNCore Ne 0 End
| 11>       NewNCore Na 2 End
| 12>       NewNCore Mg 2 End
| 13>       NewNCore Al 2 End
| 14>       NewNCore Si 2 End
| 15>       NewNCore P  2 End
| 16>       NewNCore S  2 End
| 17>       NewNCore Cl 2 End
| 18>       NewNCore Ar 2 End
| 19>     End
| 20>     %Basis
| 21>       Basis "cc-pWCVTZ"
| 22>       AuxJ  "AutoAux"
| 23>       AuxC  "AutoAux"
| 24>       CABS  "AutoAux"
| 25>     End
| 26>
| 27>                          ****END OF INPUT****

CARTESIAN COORDINATES (ANGSTROEM)
---------------------------------
  O      0.000000    0.000000    0.107924
  H      0.000000    0.000000   -0.863393

ORBITAL ENERGIES
----------------

  NO   OCC          E(Eh)            E(eV)
   0   2.0000     -20.121866      -547.5438
   1   2.0000      -0.848282       -23.0829
   2   2.0000      -0.197365        -5.3706
   3   2.0000      -0.064517        -1.7556
   4   2.0000      -0.064517        -1.7556
   5   0.0000       0.422410        11.4944
   6   0.0000       0.907357        24.6904
   7   0.0000       1.037323        28.2270
   8   0.0000       1.153966        31.4010
   9   0.0000       1.153966        31.4010

Total SCF time: 0 days 0 hours 0 min 1 sec

MP2 TOTAL ENERGY:      -75.753689196 Eh
FINAL SINGLE POINT ENERGY       -75.753689195845

DIPOLE MOMENT
-------------
                                X             Y             Z
Electronic contribution:      0.00000      -0.00000       0.38545
Nuclear contribution   :      0.00000       0.00000      -0.85640
                        -----------------------------------------
Total Dipole Moment    :      0.00000      -0.00000      -0.47095
                        -----------------------------------------
Magnitude (a.u.)       :      0.47095
Magnitude (Debye)      :      1.19707

Rotational constants in cm-1:     0.000000    18.842966    18.842966
Rotational constants in MHz :     0.000000 564897.906809 564897.906809

                             ****ORCA TERMINATED NORMALLY****
TOTAL RUN TIME: 0 days 0 hours 0 minutes 45 seconds 355 msec
