                         Program Version 5.0.1 -  RELEASE  -
|  1> %Maxcore 2000
|  2>  %Pal nprocs 30 End
|  3>
|  4>  * xyz 0 1
|  5>  C       -0.000000    1.391243    0.000000
|  6>  C       -1.204852    0.695622    0.000000
|  7>  C       -1.204852   -0.695622    0.000000
|  8>  C        0.000000   -1.391243    0.000000
|  9>  C        1.204852   -0.695622    0.000000
| 10>  C        1.204852    0.695622    0.000000
| 11>  H       -0.000000    2.473155    0.000000
| 12>  H       -2.141815    1.236578    0.000000
| 13>  H       -2.141815   -1.236578    0.000000
| 14>  H        0.000000   -2.473155    0.000000
| 15>  H        2.141815   -1.236578    0.000000
| 16>  H        2.141815    1.236578    0.000000
| 17>  *
| 18>
| 19>
| 20>                          ****END OF INPUT****
|  1>     ! DefGrid3 RIJCOSX TightPNO DLPNO-CCSD(T1)-F12 MiniPrint NoPop
|  2>     %Basis
|  3>       Basis        "maug-cc-pV(D+d)Z"
|  4>       AuxJ         "AutoAux"
|  5>       AuxC         "AutoAux"
|  6>       CABS         "AutoAux"
|  7>       NewGTO     C "cc-pVDZ" End
|  8>       NewAuxjGTO C "AutoAux" End
|  9>       NewAuxcGTO C "AutoAux" End
| 10>       NewCabsGTO C "AutoAux" End
| 11>     End
| 12>
| 13>                          ****END OF INPUT****
E(0)                                       ...   -230.722339812
E(CORR)(strong-pairs)                      ...     -0.821389344
E(CORR)(weak-pairs)                        ...     -0.000243989
E(CORR)(corrected)                         ...     -0.821633333
E(TOT)-before F12 corrections              ...   -231.543973145
E(TOT)-after HF correction                 ...   -231.601825700
FINAL SINGLE POINT ENERGY      -231.822938108720
|  1>     ! DefGrid3 RIJCOSX TightPNO DLPNO-CCSD(T1)-F12 MiniPrint NoPop
|  2>     %Basis
|  3>       Basis        "maug-cc-pV(T+d)Z"
|  4>       AuxJ         "AutoAux"
|  5>       AuxC         "AutoAux"
|  6>       CABS         "AutoAux"
|  7>       NewGTO     C "cc-pVTZ" End
|  8>       NewAuxjGTO C "AutoAux" End
|  9>       NewAuxcGTO C "AutoAux" End
| 10>       NewCabsGTO C "AutoAux" End
| 11>     End
| 12>
| 13>                          ****END OF INPUT****
E(CORR)(corrected)                         ...     -0.974282712
E(TOT)-before F12 corrections              ...   -231.754044443
E(TOT)-after HF correction                 ...   -231.766326259
E(TOT)-after all F12 corrections           ...   -231.827789923
FINAL SINGLE POINT ENERGY      -231.879211649264
|  1>     ! DefGrid3 RIJCOSX TightPNO DLPNO-MP2 MiniPrint NoPop
|  2>     %Basis
|  3>       Basis "cc-pWCVTZ"
|  4>       AuxJ  "AutoAux"
|  5>       AuxC  "AutoAux"
|  6>       CABS  "AutoAux"
|  7>     End
|  8>
|  9>                          ****END OF INPUT****
MP2 TOTAL ENERGY:     -231.744601118 Eh
FINAL SINGLE POINT ENERGY      -231.744601117698
|  1>     ! DKH DefGrid3 RIJCOSX TightPNO DLPNO-MP2 MiniPrint NoPop
|  2>     %Method
|  3>       NewNCore Li 0 End
|  4>       NewNCore Be 0 End
|  5>       NewNCore B  0 End
|  6>       NewNCore C  0 End
|  7>       NewNCore N  0 End
|  8>       NewNCore O  0 End
|  9>       NewNCore F  0 End
| 10>       NewNCore Ne 0 End
| 11>       NewNCore Na 2 End
| 12>       NewNCore Mg 2 End
| 13>       NewNCore Al 2 End
| 14>       NewNCore Si 2 End
| 15>       NewNCore P  2 End
| 16>       NewNCore S  2 End
| 17>       NewNCore Cl 2 End
| 18>       NewNCore Ar 2 End
| 19>     End
| 20>     %Basis
| 21>       Basis "cc-pWCVTZ"
| 22>       AuxJ  "AutoAux"
| 23>       AuxC  "AutoAux"
| 24>       CABS  "AutoAux"
| 25>     End
| 26>
| 27>                          ****END OF INPUT****

CARTESIAN COORDINATES (ANGSTROEM)
---------------------------------
  C     -0.000000    1.391243    0.000000
  C     -1.204852    0.695622    0.000000
  C     -1.204852   -0.695622    0.000000
  C      0.000000   -1.391243    0.000000
  C      1.204852   -0.695622    0.000000
  C      1.204852    0.695622    0.000000
  H     -0.000000    2.473155    0.000000
  H     -2.141815    1.236578    0.000000
  H     -2.141815   -1.236578    0.000000
  H      0.000000   -2.473155    0.000000
  H      2.141815   -1.236578    0.000000
  H      2.141815    1.236578    0.000000

ORBITAL ENERGIES
----------------

  NO   OCC          E(Eh)            E(eV)
   0   2.0000     -11.236514      -305.7611
   1   2.0000     -11.235933      -305.7453
   2   2.0000     -11.235932      -305.7453
   3   2.0000     -11.234675      -305.7111
   4   2.0000     -11.234675      -305.7110
   5   2.0000     -11.234060      -305.6943
   6   2.0000      -1.150174       -31.2978
   7   2.0000      -1.014004       -27.5925
   8   2.0000      -1.014004       -27.5924
   9   2.0000      -0.822844       -22.3907
  10   2.0000      -0.822844       -22.3907
  11   2.0000      -0.708372       -19.2758
  12   2.0000      -0.641969       -17.4689
  13   2.0000      -0.618044       -16.8178
  14   2.0000      -0.586406       -15.9569
  15   2.0000      -0.586404       -15.9569
  16   2.0000      -0.501816       -13.6551
  17   2.0000      -0.493031       -13.4161
  18   2.0000      -0.493029       -13.4160
  19   2.0000      -0.335629        -9.1329
  20   2.0000      -0.335627        -9.1329
  21   0.0000       0.129299         3.5184
  22   0.0000       0.129302         3.5185
  23   0.0000       0.145794         3.9672
  24   0.0000       0.169937         4.6242
  25   0.0000       0.169940         4.6243

Total SCF time: 0 days 0 hours 0 min 9 sec

MP2 TOTAL ENERGY:     -232.105756054 Eh
FINAL SINGLE POINT ENERGY      -232.105756054192

DIPOLE MOMENT
-------------
                                X             Y             Z
Electronic contribution:      0.00000       0.00000       0.00000
Nuclear contribution   :      0.00000       0.00000       0.00000
                        -----------------------------------------
Total Dipole Moment    :      0.00000       0.00000       0.00000
                        -----------------------------------------
Magnitude (a.u.)       :      0.00000
Magnitude (Debye)      :      0.00000

Rotational constants in cm-1:     0.191043     0.191043     0.095521
Rotational constants in MHz :  5727.313348  5727.312438  2863.656447

                             ****ORCA TERMINATED NORMALLY****
TOTAL RUN TIME: 0 days 0 hours 32 minutes 5 seconds 457 msec
