                         Program Version 5.0.1 -  RELEASE  -
|  1> %Maxcore 2000
|  2>  %Pal nprocs 5 End
|  3>
|  4>  * xyz 0 1
|  5>  C        0.000000    0.000000    0.662598
|  6>  H        0.000000    0.920944    1.232046
|  7>  H       -0.000000   -0.920944    1.232046
|  8>  C        0.000000    0.000000   -0.662598
|  9>  H       -0.000000   -0.920944   -1.232046
| 10>  H        0.000000    0.920944   -1.232046
| 11>  *
| 12>
| 13>
| 14>                          ****END OF INPUT****
|  1>     ! DefGrid3 RIJCOSX TightPNO DLPNO-CCSD(T1)-F12 MiniPrint NoPop
|  2>     %Basis
|  3>       Basis "maug-cc-pV(D+d)Z"
|  4>       AuxJ  "AutoAux"
|  5>       AuxC  "AutoAux"
|  6>       CABS  "AutoAux"
|  7>     End
|  8>
|  9>                          ****END OF INPUT****
E(0)                                       ...    -78.041992464
E(CORR)(strong-pairs)                      ...     -0.305250650
E(CORR)(weak-pairs)                        ...     -0.000020279
E(CORR)(corrected)                         ...     -0.305270929
E(TOT)-before F12 corrections              ...    -78.347263393
E(TOT)-after HF correction                 ...    -78.371275146
FINAL SINGLE POINT ENERGY       -78.443885558592
|  1>     ! DefGrid3 RIJCOSX TightPNO DLPNO-CCSD(T1)-F12 MiniPrint NoPop
|  2>     %Basis
|  3>       Basis "maug-cc-pV(T+d)Z"
|  4>       AuxJ  "AutoAux"
|  5>       AuxC  "AutoAux"
|  6>       CABS  "AutoAux"
|  7>     End
|  8>
|  9>                          ****END OF INPUT****
E(CORR)(corrected)                         ...     -0.359819663
E(TOT)-before F12 corrections              ...    -78.424363180
E(TOT)-after HF correction                 ...    -78.429063930
E(TOT)-after all F12 corrections           ...    -78.449376077
FINAL SINGLE POINT ENERGY       -78.464288264799
|  1>     ! DefGrid3 RIJCOSX TightPNO DLPNO-MP2 MiniPrint NoPop
|  2>     %Basis
|  3>       Basis "cc-pWCVTZ"
|  4>       AuxJ  "AutoAux"
|  5>       AuxC  "AutoAux"
|  6>       CABS  "AutoAux"
|  7>     End
|  8>
|  9>                          ****END OF INPUT****
MP2 TOTAL ENERGY:      -78.404171157 Eh
FINAL SINGLE POINT ENERGY       -78.404171156838
|  1>     ! DKH DefGrid3 RIJCOSX TightPNO DLPNO-MP2 MiniPrint NoPop
|  2>     %Method
|  3>       NewNCore Li 0 End
|  4>       NewNCore Be 0 End
|  5>       NewNCore B  0 End
|  6>       NewNCore C  0 End
|  7>       NewNCore N  0 End
|  8>       NewNCore O  0 End
|  9>       NewNCore F  0 End
| 10>       NewNCore Ne 0 End
| 11>       NewNCore Na 2 End
| 12>       NewNCore Mg 2 End
| 13>       NewNCore Al 2 End
| 14>       NewNCore Si 2 End
| 15>       NewNCore P  2 End
| 16>       NewNCore S  2 End
| 17>       NewNCore Cl 2 End
| 18>       NewNCore Ar 2 End
| 19>     End
| 20>     %Basis
| 21>       Basis "cc-pWCVTZ"
| 22>       AuxJ  "AutoAux"
| 23>       AuxC  "AutoAux"
| 24>       CABS  "AutoAux"
| 25>     End
| 26>
| 27>                          ****END OF INPUT****

CARTESIAN COORDINATES (ANGSTROEM)
---------------------------------
  C      0.000000    0.000000    0.662598
  H      0.000000    0.920944    1.232046
  H     -0.000000   -0.920944    1.232046
  C      0.000000    0.000000   -0.662598
  H     -0.000000   -0.920944   -1.232046
  H      0.000000    0.920944   -1.232046

ORBITAL ENERGIES
----------------

  NO   OCC          E(Eh)            E(eV)
   0   2.0000     -11.231915      -305.6360
   1   2.0000     -11.230130      -305.5874
   2   2.0000      -1.035109       -28.1668
   3   2.0000      -0.791696       -21.5431
   4   2.0000      -0.642087       -17.4721
   5   2.0000      -0.588883       -16.0243
   6   2.0000      -0.504506       -13.7283
   7   2.0000      -0.378143       -10.2898
   8   0.0000       0.153493         4.1768
   9   0.0000       0.159172         4.3313
  10   0.0000       0.186330         5.0703
  11   0.0000       0.190771         5.1912
  12   0.0000       0.241521         6.5721

Total SCF time: 0 days 0 hours 0 min 3 sec

MP2 TOTAL ENERGY:      -78.524431984 Eh
FINAL SINGLE POINT ENERGY       -78.524431983935

DIPOLE MOMENT
-------------
                                X             Y             Z
Electronic contribution:      0.00000      -0.00000      -0.00000
Nuclear contribution   :      0.00000       0.00000       0.00000
                        -----------------------------------------
Total Dipole Moment    :      0.00000      -0.00000      -0.00000
                        -----------------------------------------
Magnitude (a.u.)       :      0.00000
Magnitude (Debye)      :      0.00000

Rotational constants in cm-1:     4.929580     1.011448     0.839251
Rotational constants in MHz : 147785.094948 30322.437410 25160.105428

                             ****ORCA TERMINATED NORMALLY****
TOTAL RUN TIME: 0 days 0 hours 3 minutes 10 seconds 702 msec
