                         Program Version 5.0.1 -  RELEASE  -
|  1> %Maxcore 8000
|  2>  %Pal nprocs 10 End
|  3>
|  4>  * xyz 0 1
|  5>  C        2.433561    0.718355    0.000000
|  6>  C        1.253087    1.388888    0.000000
|  7>  C        0.000871    0.705905    0.000000
|  8>  C       -0.000871   -0.705905    0.000000
|  9>  C        1.253087   -1.429844    0.000000
| 10>  C        2.475256   -0.702900    0.000000
| 11>  C       -1.253087    1.429844    0.000000
| 12>  C       -1.253087   -1.388888    0.000000
| 13>  C       -2.433561   -0.718355    0.000000
| 14>  C       -2.475256    0.702900    0.000000
| 15>  C       -3.705461    1.394656    0.000000
| 16>  H       -4.623137    0.820005    0.000000
| 17>  C       -3.745186    2.766713    0.000000
| 18>  C       -2.543059    3.493216    0.000000
| 19>  C       -1.332210    2.840958    0.000000
| 20>  H        1.273534    2.467518    0.000000
| 21>  H       -1.273534   -2.467518    0.000000
| 22>  H       -4.693136    3.287431    0.000000
| 23>  H       -2.568507    4.574669    0.000000
| 24>  H       -0.431147    3.434756    0.000000
| 25>  C        3.705461   -1.394656    0.000000
| 26>  H        4.623137   -0.820005    0.000000
| 27>  C        1.332210   -2.840958    0.000000
| 28>  H        0.431147   -3.434756    0.000000
| 29>  C        3.745186   -2.766713    0.000000
| 30>  C        2.543059   -3.493216    0.000000
| 31>  H        4.693136   -3.287431    0.000000
| 32>  H        2.568507   -4.574669    0.000000
| 33>  H        3.368325    1.264575    0.000000
| 34>  H       -3.368325   -1.264575    0.000000
| 35>  *
| 36>
| 37>
| 38>                          ****END OF INPUT****
|  1>     ! DefGrid3 RIJCOSX TightPNO DLPNO-CCSD(T1)-F12 MiniPrint NoPop
|  2>     %Basis
|  3>       Basis        "maug-cc-pV(D+d)Z"
|  4>       AuxJ         "AutoAux"
|  5>       AuxC         "AutoAux"
|  6>       CABS         "AutoAux"
|  7>       NewGTO     C "cc-pVDZ" End
|  8>       NewAuxjGTO C "AutoAux" End
|  9>       NewAuxcGTO C "AutoAux" End
| 10>       NewCabsGTO C "AutoAux" End
| 11>     End
| 12>
| 13>                          ****END OF INPUT****
E(0)                                       ...   -688.710822797
E(CORR)(strong-pairs)                      ...     -2.385785825
E(CORR)(weak-pairs)                        ...     -0.002681972
E(CORR)(corrected)                         ...     -2.388467797
E(TOT)-before F12 corrections              ...   -691.099290595
E(TOT)-after HF correction                 ...   -691.263220938
FINAL SINGLE POINT ENERGY      -691.928097335763
|  1>     ! DefGrid3 RIJCOSX TightPNO DLPNO-CCSD(T1)-F12 MiniPrint NoPop
|  2>     %Basis
|  3>       Basis        "maug-cc-pV(T+d)Z"
|  4>       AuxJ         "AutoAux"
|  5>       AuxC         "AutoAux"
|  6>       CABS         "AutoAux"
|  7>       NewGTO     C "cc-pVTZ" End
|  8>       NewAuxjGTO C "AutoAux" End
|  9>       NewAuxcGTO C "AutoAux" End
| 10>       NewCabsGTO C "AutoAux" End
| 11>     End
| 12>
| 13>                          ****END OF INPUT****
E(CORR)(corrected)                         ...     -2.832936441
E(TOT)-before F12 corrections              ...   -691.704158892
E(TOT)-after HF correction                 ...   -691.739678757
E(TOT)-after all F12 corrections           ...   -691.923384394
FINAL SINGLE POINT ENERGY      -692.087080368779
|  1>     ! DefGrid3 RIJCOSX TightPNO DLPNO-MP2 MiniPrint NoPop
|  2>     %Basis
|  3>       Basis "cc-pWCVTZ"
|  4>       AuxJ  "AutoAux"
|  5>       AuxC  "AutoAux"
|  6>       CABS  "AutoAux"
|  7>     End
|  8>
|  9>                          ****END OF INPUT****
MP2 TOTAL ENERGY:     -691.726585455 Eh
FINAL SINGLE POINT ENERGY      -691.726585454539
|  1>     ! DKH DefGrid3 RIJCOSX TightPNO DLPNO-MP2 MiniPrint NoPop
|  2>     %Method
|  3>       NewNCore Li 0 End
|  4>       NewNCore Be 0 End
|  5>       NewNCore B  0 End
|  6>       NewNCore C  0 End
|  7>       NewNCore N  0 End
|  8>       NewNCore O  0 End
|  9>       NewNCore F  0 End
| 10>       NewNCore Ne 0 End
| 11>       NewNCore Na 2 End
| 12>       NewNCore Mg 2 End
| 13>       NewNCore Al 2 End
| 14>       NewNCore Si 2 End
| 15>       NewNCore P  2 End
| 16>       NewNCore S  2 End
| 17>       NewNCore Cl 2 End
| 18>       NewNCore Ar 2 End
| 19>     End
| 20>     %Basis
| 21>       Basis "cc-pWCVTZ"
| 22>       AuxJ  "AutoAux"
| 23>       AuxC  "AutoAux"
| 24>       CABS  "AutoAux"
| 25>     End
| 26>
| 27>                          ****END OF INPUT****

CARTESIAN COORDINATES (ANGSTROEM)
---------------------------------
  C      2.433561    0.718355    0.000000
  C      1.253087    1.388888    0.000000
  C      0.000871    0.705905    0.000000
  C     -0.000871   -0.705905    0.000000
  C      1.253087   -1.429844    0.000000
  C      2.475256   -0.702900    0.000000
  C     -1.253087    1.429844    0.000000
  C     -1.253087   -1.388888    0.000000
  C     -2.433561   -0.718355    0.000000
  C     -2.475256    0.702900    0.000000
  C     -3.705461    1.394656    0.000000
  H     -4.623137    0.820005    0.000000
  C     -3.745186    2.766713    0.000000
  C     -2.543059    3.493216    0.000000
  C     -1.332210    2.840958    0.000000
  H      1.273534    2.467518    0.000000
  H     -1.273534   -2.467518    0.000000
  H     -4.693136    3.287431    0.000000
  H     -2.568507    4.574669    0.000000
  H     -0.431147    3.434756    0.000000
  C      3.705461   -1.394656    0.000000
  H      4.623137   -0.820005    0.000000
  C      1.332210   -2.840958    0.000000
  H      0.431147   -3.434756    0.000000
  C      3.745186   -2.766713    0.000000
  C      2.543059   -3.493216    0.000000
  H      4.693136   -3.287431    0.000000
  H      2.568507   -4.574669    0.000000
  H      3.368325    1.264575    0.000000
  H     -3.368325   -1.264575    0.000000

ORBITAL ENERGIES
----------------

  NO   OCC          E(Eh)            E(eV)
   0   2.0000     -11.252586      -306.1984
   1   2.0000     -11.251644      -306.1728
   2   2.0000     -11.250860      -306.1515
   3   2.0000     -11.250663      -306.1461
   4   2.0000     -11.246105      -306.0221
   5   2.0000     -11.246104      -306.0221
   6   2.0000     -11.239167      -305.8333
   7   2.0000     -11.239166      -305.8333
   8   2.0000     -11.238838      -305.8243
   9   2.0000     -11.238838      -305.8243
  10   2.0000     -11.238771      -305.8225
  11   2.0000     -11.238768      -305.8224
  12   2.0000     -11.237810      -305.7963
  13   2.0000     -11.237809      -305.7963
  14   2.0000     -11.237250      -305.7811
  15   2.0000     -11.237248      -305.7811
  16   2.0000     -11.236931      -305.7724
  17   2.0000     -11.236930      -305.7724
  18   2.0000      -1.194133       -32.4940
  19   2.0000      -1.165454       -31.7136
  20   2.0000      -1.119860       -30.4729
  21   2.0000      -1.095005       -29.7966
  22   2.0000      -1.048772       -28.5385
  23   2.0000      -1.044097       -28.4113
  24   2.0000      -1.006202       -27.3801
  25   2.0000      -0.988493       -26.8983
  26   2.0000      -0.973301       -26.4849
  27   2.0000      -0.865695       -23.5568
  28   2.0000      -0.858310       -23.3558
  29   2.0000      -0.854487       -23.2518
  30   2.0000      -0.818187       -22.2640
  31   2.0000      -0.805408       -21.9163
  32   2.0000      -0.743595       -20.2343
  33   2.0000      -0.715460       -19.4687
  34   2.0000      -0.702993       -19.1294
  35   2.0000      -0.698698       -19.0125
  36   2.0000      -0.664156       -18.0726
  37   2.0000      -0.645375       -17.5615
  38   2.0000      -0.637729       -17.3535
  39   2.0000      -0.609421       -16.5832
  40   2.0000      -0.602906       -16.4059
  41   2.0000      -0.601344       -16.3634
  42   2.0000      -0.582545       -15.8519
  43   2.0000      -0.573169       -15.5967
  44   2.0000      -0.563060       -15.3216
  45   2.0000      -0.560734       -15.2583
  46   2.0000      -0.555188       -15.1074
  47   2.0000      -0.533129       -14.5072
  48   2.0000      -0.517591       -14.0844
  49   2.0000      -0.509211       -13.8563
  50   2.0000      -0.495000       -13.4696
  51   2.0000      -0.480206       -13.0671
  52   2.0000      -0.462603       -12.5881
  53   2.0000      -0.458535       -12.4774
  54   2.0000      -0.432311       -11.7638
  55   2.0000      -0.378818       -10.3082
  56   2.0000      -0.362946        -9.8763
  57   2.0000      -0.322025        -8.7627
  58   2.0000      -0.291326        -7.9274
  59   2.0000      -0.271265        -7.3815
  60   0.0000       0.070494         1.9182
  61   0.0000       0.084331         2.2948
  62   0.0000       0.103791         2.8243
  63   0.0000       0.144750         3.9389
  64   0.0000       0.145129         3.9492

Total SCF time: 0 days 0 hours 2 min 14 sec

MP2 TOTAL ENERGY:     -692.810274903 Eh
FINAL SINGLE POINT ENERGY      -692.810274902715

DIPOLE MOMENT
-------------
                                X             Y             Z
Electronic contribution:     -0.00000      -0.00000      -0.00000
Nuclear contribution   :     -0.00000       0.00000       0.00000
                        -----------------------------------------
Total Dipole Moment    :     -0.00000      -0.00000      -0.00000
                        -----------------------------------------
Magnitude (a.u.)       :      0.00000
Magnitude (Debye)      :      0.00001

Rotational constants in cm-1:     0.042228     0.008818     0.007295
Rotational constants in MHz :  1265.958898   264.365692   218.696153

                             ****ORCA TERMINATED NORMALLY****
TOTAL RUN TIME: 1 days 0 hours 35 minutes 31 seconds 655 msec
