                         Program Version 5.0.1 -  RELEASE  -
|  1> %Maxcore 4000
|  2>  %Pal nprocs 19 End
|  3>
|  4>  * xyz 0 1
|  5>  C       -0.000000    2.423179    0.705920
|  6>  C       -0.000000    1.240048    1.397230
|  7>  C       -0.000000    0.000000    0.714090
|  8>  C        0.000000   -0.000000   -0.714090
|  9>  C        0.000000    1.240048   -1.397230
| 10>  C       -0.000000    2.423179   -0.705920
| 11>  H       -0.000000   -1.238354    2.480015
| 12>  H       -0.000000    3.363735    1.240095
| 13>  H       -0.000000    1.238354    2.480015
| 14>  C       -0.000000   -1.240048    1.397230
| 15>  C       -0.000000   -1.240048   -1.397230
| 16>  H        0.000000    1.238354   -2.480015
| 17>  H        0.000000    3.363735   -1.240095
| 18>  C       -0.000000   -2.423179   -0.705920
| 19>  C       -0.000000   -2.423179    0.705920
| 20>  H        0.000000   -1.238354   -2.480015
| 21>  H       -0.000000   -3.363735   -1.240095
| 22>  H       -0.000000   -3.363735    1.240095
| 23>  *
| 24>
| 25>
| 26>                          ****END OF INPUT****
|  1>     ! DefGrid3 RIJCOSX TightPNO DLPNO-CCSD(T1)-F12 MiniPrint NoPop
|  2>     %Basis
|  3>       Basis        "maug-cc-pV(D+d)Z"
|  4>       AuxJ         "AutoAux"
|  5>       AuxC         "AutoAux"
|  6>       CABS         "AutoAux"
|  7>       NewGTO     C "cc-pVDZ" End
|  8>       NewAuxjGTO C "AutoAux" End
|  9>       NewAuxcGTO C "AutoAux" End
| 10>       NewCabsGTO C "AutoAux" End
| 11>     End
| 12>
| 13>                          ****END OF INPUT****
E(0)                                       ...   -383.384453364
E(CORR)(strong-pairs)                      ...     -1.342312720
E(CORR)(weak-pairs)                        ...     -0.000730791
E(CORR)(corrected)                         ...     -1.343043511
E(TOT)-before F12 corrections              ...   -384.727496875
E(TOT)-after HF correction                 ...   -384.820867970
FINAL SINGLE POINT ENERGY      -385.189920139057
|  1>     ! DefGrid3 RIJCOSX TightPNO DLPNO-CCSD(T1)-F12 MiniPrint NoPop
|  2>     %Basis
|  3>       Basis        "maug-cc-pV(T+d)Z"
|  4>       AuxJ         "AutoAux"
|  5>       AuxC         "AutoAux"
|  6>       CABS         "AutoAux"
|  7>       NewGTO     C "cc-pVTZ" End
|  8>       NewAuxjGTO C "AutoAux" End
|  9>       NewAuxcGTO C "AutoAux" End
| 10>       NewCabsGTO C "AutoAux" End
| 11>     End
| 12>
| 13>                          ****END OF INPUT****
E(CORR)(corrected)                         ...     -1.592817282
E(TOT)-before F12 corrections              ...   -385.069116064
E(TOT)-after HF correction                 ...   -385.089164924
E(TOT)-after all F12 corrections           ...   -385.191364167
FINAL SINGLE POINT ENERGY      -385.280157103822
|  1>     ! DefGrid3 RIJCOSX TightPNO DLPNO-MP2 MiniPrint NoPop
|  2>     %Basis
|  3>       Basis "cc-pWCVTZ"
|  4>       AuxJ  "AutoAux"
|  5>       AuxC  "AutoAux"
|  6>       CABS  "AutoAux"
|  7>     End
|  8>
|  9>                          ****END OF INPUT****
MP2 TOTAL ENERGY:     -385.069632360 Eh
FINAL SINGLE POINT ENERGY      -385.069632360390
|  1>     ! DKH DefGrid3 RIJCOSX TightPNO DLPNO-MP2 MiniPrint NoPop
|  2>     %Method
|  3>       NewNCore Li 0 End
|  4>       NewNCore Be 0 End
|  5>       NewNCore B  0 End
|  6>       NewNCore C  0 End
|  7>       NewNCore N  0 End
|  8>       NewNCore O  0 End
|  9>       NewNCore F  0 End
| 10>       NewNCore Ne 0 End
| 11>       NewNCore Na 2 End
| 12>       NewNCore Mg 2 End
| 13>       NewNCore Al 2 End
| 14>       NewNCore Si 2 End
| 15>       NewNCore P  2 End
| 16>       NewNCore S  2 End
| 17>       NewNCore Cl 2 End
| 18>       NewNCore Ar 2 End
| 19>     End
| 20>     %Basis
| 21>       Basis "cc-pWCVTZ"
| 22>       AuxJ  "AutoAux"
| 23>       AuxC  "AutoAux"
| 24>       CABS  "AutoAux"
| 25>     End
| 26>
| 27>                          ****END OF INPUT****

CARTESIAN COORDINATES (ANGSTROEM)
---------------------------------
  C     -0.000000    2.423179    0.705920
  C     -0.000000    1.240048    1.397230
  C     -0.000000    0.000000    0.714090
  C      0.000000   -0.000000   -0.714090
  C      0.000000    1.240048   -1.397230
  C     -0.000000    2.423179   -0.705920
  H     -0.000000   -1.238354    2.480015
  H     -0.000000    3.363735    1.240095
  H     -0.000000    1.238354    2.480015
  C     -0.000000   -1.240048    1.397230
  C     -0.000000   -1.240048   -1.397230
  H      0.000000    1.238354   -2.480015
  H      0.000000    3.363735   -1.240095
  C     -0.000000   -2.423179   -0.705920
  C     -0.000000   -2.423179    0.705920
  H      0.000000   -1.238354   -2.480015
  H     -0.000000   -3.363735   -1.240095
  H     -0.000000   -3.363735    1.240095

ORBITAL ENERGIES
----------------

  NO   OCC          E(Eh)            E(eV)
   0   2.0000     -11.245546      -306.0069
   1   2.0000     -11.244519      -305.9789
   2   2.0000     -11.238164      -305.8060
   3   2.0000     -11.238122      -305.8048
   4   2.0000     -11.237841      -305.7972
   5   2.0000     -11.237754      -305.7948
   6   2.0000     -11.236780      -305.7683
   7   2.0000     -11.236739      -305.7672
   8   2.0000     -11.236032      -305.7480
   9   2.0000     -11.236014      -305.7475
  10   2.0000      -1.177068       -32.0296
  11   2.0000      -1.110370       -30.2147
  12   2.0000      -1.050960       -28.5981
  13   2.0000      -1.008570       -27.4446
  14   2.0000      -0.981718       -26.7139
  15   2.0000      -0.854212       -23.2443
  16   2.0000      -0.836501       -22.7624
  17   2.0000      -0.811345       -22.0778
  18   2.0000      -0.706534       -19.2258
  19   2.0000      -0.699567       -19.0362
  20   2.0000      -0.677867       -18.4457
  21   2.0000      -0.623063       -16.9544
  22   2.0000      -0.610841       -16.6218
  23   2.0000      -0.584211       -15.8972
  24   2.0000      -0.582945       -15.8627
  25   2.0000      -0.564200       -15.3527
  26   2.0000      -0.533728       -14.5235
  27   2.0000      -0.523708       -14.2508
  28   2.0000      -0.488444       -13.2912
  29   2.0000      -0.475885       -12.9495
  30   2.0000      -0.448906       -12.2154
  31   2.0000      -0.385801       -10.4982
  32   2.0000      -0.318658        -8.6711
  33   2.0000      -0.288884        -7.8609
  34   0.0000       0.085891         2.3372
  35   0.0000       0.114540         3.1168
  36   0.0000       0.145652         3.9634
  37   0.0000       0.153133         4.1670
  38   0.0000       0.157737         4.2922

Total SCF time: 0 days 0 hours 0 min 26 sec

MP2 TOTAL ENERGY:     -385.671672415 Eh
FINAL SINGLE POINT ENERGY      -385.671672415142

DIPOLE MOMENT
-------------
                                X             Y             Z
Electronic contribution:      0.00000       0.00000       0.00000
Nuclear contribution   :      0.00000       0.00000       0.00000
                        -----------------------------------------
Total Dipole Moment    :      0.00000       0.00000       0.00000
                        -----------------------------------------
Magnitude (a.u.)       :      0.00000
Magnitude (Debye)      :      0.00000

Rotational constants in cm-1:     0.104716     0.041339     0.029639
Rotational constants in MHz :  3139.313308  1239.322676   888.546612

                             ****ORCA TERMINATED NORMALLY****
TOTAL RUN TIME: 0 days 3 hours 29 minutes 55 seconds 362 msec
